# vtk DataFile Version 5.1
vtk output
ASCII
DATASET UNSTRUCTURED_GRID
POINTS 10000 float
0 0.0956278 0 0.000778366 0.0958004 0 0.0015609 0.0959764 0 
0.00234753 0.0961558 0 0.00313823 0.0963387 0 0.00393292 0.0965251 0 
0.00473156 0.0967151 0 0.0055341 0.0969085 0 0.00634052 0.0971056 0 
0.00715091 0.0973062 0 0.00796541 0.0975107 0 0.00878409 0.097719 0 
0.00960676 0.097931 0 0.0104331 0.0981466 0 0.0112629 0.0983659 0 
0.012096 0.0985889 0 0.0129326 0.0988157 0 0.0137729 0.0990462 0 
0.0146168 0.0992806 0 0.0154643 0.0995189 0 0.0163152 0.0997611 0 
0.0171692 0.100007 0 0.0180264 0.100257 0 0.0188865 0.10051 0 
0.0197495 0.100767 0 0.0206153 0.101028 0 0.0214839 0.101293 0 
0.0223553 0.101562 0 0.0232295 0.101834 0 0.0241063 0.10211 0 
0.0249857 0.102389 0 0.0258678 0.102672 0 0.0267526 0.102957 0 
0.0276402 0.103245 0 0.0285304 0.103536 0 0.0294231 0.103829 0 
0.0303183 0.104123 0 0.0312159 0.10442 0 0.0321156 0.104717 0 
0.0330173 0.105016 0 0.033921 0.105315 0 0.0348267 0.105615 0 
0.0357344 0.105915 0 0.0366442 0.106215 0 0.037556 0.106514 0 
0.0384698 0.106813 0 0.0393857 0.10711 0 0.0403035 0.107406 0 
0.0412232 0.107701 0 0.0421448 0.107993 0 0.0430681 0.108284 0 
0.043993 0.108571 0 0.0449195 0.108856 0 0.0458476 0.109138 0 
0.0467771 0.109416 0 0.0477081 0.10969 0 0.0486406 0.109961 0 
0.0495744 0.110228 0 0.0505096 0.110491 0 0.0514462 0.11075 0 
0.0523841 0.111005 0 0.0533234 0.111256 0 0.0542644 0.111503 0 
0.0552069 0.111747 0 0.056151 0.111987 0 0.0570966 0.112223 0 
0.0580437 0.112455 0 0.0589924 0.112684 0 0.0599426 0.112909 0 
0.0608945 0.11313 0 0.061848 0.113347 0 0.062803 0.113561 0 
0.0637599 0.113771 0 0.0647189 0.113978 0 0.06568 0.114181 0 
0.0666435 0.11438 0 0.0676092 0.114577 0 0.0685772 0.114769 0 
0.0695473 0.114959 0 0.0705194 0.115144 0 0.0714933 0.115326 0 
0.0724689 0.115505 0 0.073446 0.11568 0 0.0744251 0.115852 0 
0.0754064 0.11602 0 0.0763899 0.116185 0 0.077375 0.116346 0 
0.0783613 0.116503 0 0.0793489 0.116657 0 0.0803378 0.116808 0 
0.0813282 0.116955 0 0.0823198 0.117099 0 0.0833124 0.117239 0 
0.0843059 0.117375 0 0.0853001 0.117509 0 0.0862951 0.117638 0 
0.0872917 0.117764 0 0.0882907 0.117888 0 0.0892929 0.118008 0 
0.0902991 0.118126 0 0.00013575 0.0972241 0 0.000913069 0.0973949 0 
0.00169466 0.0975685 0 0.00248046 0.0977451 0 0.0032704 0.0979249 0 
0.0040644 0.0981081 0 0.00486239 0.098295 0 0.0056643 0.0984857 0 
0.00647011 0.0986803 0 0.00727991 0.0988787 0 0.00809379 0.0990807 0 
0.00891184 0.0992863 0 0.0097339 0.0994955 0 0.0105597 0.0997082 0 
0.0113891 0.0999245 0 0.0122219 0.100144 0 0.0130582 0.100368 0 
0.0138981 0.100595 0 0.0147416 0.100827 0 0.0155886 0.101061 0 
0.0164389 0.1013 0 0.0172925 0.101543 0 0.0181492 0.101789 0 
0.0190089 0.102039 0 0.0198716 0.102293 0 0.020737 0.10255 0 
0.0216053 0.102811 0 0.0224762 0.103076 0 0.0233499 0.103345 0 
0.0242262 0.103617 0 0.0251052 0.103893 0 0.0259868 0.104172 0 
0.026871 0.104453 0 0.0277579 0.104737 0 0.0286475 0.105024 0 
0.0295396 0.105313 0 0.0304341 0.105604 0 0.0313308 0.105897 0 
0.0322297 0.10619 0 0.0331305 0.106485 0 0.0340333 0.106781 0 
0.0349381 0.107077 0 0.0358448 0.107373 0 0.0367535 0.107668 0 
0.0376641 0.107964 0 0.0385768 0.108259 0 0.0394914 0.108552 0 
0.0404078 0.108845 0 0.0413262 0.109135 0 0.0422463 0.109424 0 
0.0431681 0.109711 0 0.0440915 0.109995 0 0.0450165 0.110276 0 
0.0459429 0.110554 0 0.0468708 0.110829 0 0.0478 0.1111 0 
0.0487306 0.111367 0 0.0496625 0.11163 0 0.0505958 0.11189 0 
0.0515304 0.112146 0 0.0524662 0.112397 0 0.0534035 0.112645 0 
0.0543423 0.11289 0 0.0552827 0.11313 0 0.0562246 0.113367 0 
0.057168 0.1136 0 0.0581128 0.11383 0 0.0590591 0.114055 0 
0.0600071 0.114278 0 0.0609565 0.114496 0 0.0619076 0.114711 0 
0.0628602 0.114922 0 0.0638146 0.11513 0 0.064771 0.115334 0 
0.0657296 0.115535 0 0.0666905 0.115732 0 0.0676536 0.115926 0 
0.0686189 0.116117 0 0.0695864 0.116304 0 0.0705558 0.116487 0 
0.071527 0.116667 0 0.0724996 0.116844 0 0.0734738 0.117017 0 
0.0744498 0.117187 0 0.0754283 0.117353 0 0.0764091 0.117516 0 
0.0773915 0.117676 0 0.0783749 0.117832 0 0.0793595 0.117984 0 
0.0803454 0.118133 0 0.0813327 0.118279 0 0.0823212 0.118421 0 
0.0833108 0.11856 0 0.0843012 0.118695 0 0.0852922 0.118827 0 
0.0862839 0.118955 0 0.0872773 0.11908 0 0.0882737 0.119202 0 
0.0892742 0.119322 0 0.09028 0.119439 0 0.000279388 0.0988197 0 
0.0010558 0.0989884 0 0.00183658 0.0991595 0 0.00262164 0.0993333 0 
0.0034109 0.0995102 0 0.00420426 0.0996905 0 0.00500165 0.0998745 0 
0.00580298 0.100062 0 0.0066082 0.100254 0 0.0074174 0.10045 0 
0.00823067 0.10065 0 0.00904809 0.100853 0 0.00986953 0.101059 0 
0.0106948 0.101269 0 0.0115237 0.101482 0 0.0123561 0.101699 0 
0.013192 0.101919 0 0.0140315 0.102143 0 0.0148744 0.102371 0 
0.0157208 0.102603 0 0.0165705 0.102838 0 0.0174235 0.103077 0 
0.0182797 0.10332 0 0.0191389 0.103567 0 0.020001 0.103817 0 
0.0208659 0.104071 0 0.0217336 0.104328 0 0.022604 0.10459 0 
0.023477 0.104855 0 0.0243527 0.105124 0 0.0252309 0.105395 0 
0.0261118 0.10567 0 0.0269953 0.105948 0 0.0278815 0.106229 0 
0.0287702 0.106512 0 0.0296614 0.106797 0 0.0305549 0.107084 0 
0.0314507 0.107373 0 0.0323485 0.107663 0 0.0332483 0.107954 0 
0.03415 0.108245 0 0.0350535 0.108537 0 0.035959 0.108829 0 
0.0368664 0.109121 0 0.0377757 0.109413 0 0.0386869 0.109704 0 
0.0396 0.109994 0 0.0405149 0.110282 0 0.0414316 0.110569 0 
0.04235 0.110854 0 0.0432701 0.111137 0 0.0441918 0.111418 0 
0.0451149 0.111695 0 0.0460395 0.11197 0 0.0469653 0.112241 0 
0.0478926 0.112508 0 0.0488211 0.112772 0 0.0497509 0.113033 0 
0.0506819 0.113289 0 0.0516143 0.113541 0 0.0525479 0.11379 0 
0.0534828 0.114035 0 0.0544193 0.114276 0 0.0553573 0.114514 0 
0.0562967 0.114747 0 0.0572376 0.114978 0 0.0581798 0.115204 0 
0.0591236 0.115427 0 0.0600689 0.115646 0 0.0610158 0.115862 0 
0.0619642 0.116075 0 0.0629141 0.116283 0 0.0638657 0.116488 0 
0.0648193 0.11669 0 0.0657751 0.116889 0 0.0667332 0.117084 0 
0.0676934 0.117275 0 0.0686559 0.117463 0 0.0696204 0.117648 0 
0.0705869 0.11783 0 0.0715551 0.118008 0 0.0725247 0.118182 0 
0.0734957 0.118354 0 0.0744686 0.118522 0 0.075444 0.118686 0 
0.0764218 0.118847 0 0.0774012 0.119005 0 0.0783815 0.119159 0 
0.0793629 0.11931 0 0.0803456 0.119458 0 0.0813296 0.119602 0 
0.082315 0.119742 0 0.0833013 0.11988 0 0.0842884 0.120014 0 
0.0852761 0.120144 0 0.0862643 0.120271 0 0.0872543 0.120395 0 
0.0882476 0.120516 0 0.0892456 0.120634 0 0.0902496 0.12075 0 
0.000430825 0.100415 0 0.00120645 0.100581 0 0.00198651 0.100749 0 
0.00277091 0.100921 0 0.00355955 0.101095 0 0.00435232 0.101272 0 
0.00514913 0.101454 0 0.00594988 0.101639 0 0.00675452 0.101828 0 
0.00756312 0.102021 0 0.00837577 0.102218 0 0.00919253 0.102418 0 
0.0100133 0.102621 0 0.010838 0.102828 0 0.0116663 0.103038 0 
0.0124982 0.103252 0 0.0133336 0.103469 0 0.0141725 0.10369 0 
0.0150148 0.103915 0 0.0158605 0.104143 0 0.0167096 0.104375 0 
0.0175619 0.104611 0 0.0184174 0.10485 0 0.0192759 0.105093 0 
0.0201373 0.10534 0 0.0210016 0.105591 0 0.0218685 0.105845 0 
0.0227381 0.106103 0 0.0236103 0.106364 0 0.0244852 0.106629 0 
0.0253625 0.106897 0 0.0262425 0.107168 0 0.0271251 0.107443 0 
0.0280102 0.107719 0 0.0288979 0.107999 0 0.029788 0.10828 0 
0.0306804 0.108563 0 0.031575 0.108848 0 0.0324716 0.109134 0 
0.0333701 0.109421 0 0.0342704 0.109709 0 0.0351725 0.109997 0 
0.0360765 0.110285 0 0.0369824 0.110574 0 0.0378901 0.110861 0 
0.0387996 0.111148 0 0.039711 0.111435 0 0.0406241 0.111719 0 
0.041539 0.112003 0 0.0424555 0.112284 0 0.0433736 0.112563 0 
0.0442933 0.11284 0 0.0452143 0.113114 0 0.0461367 0.113385 0 
0.0470604 0.113653 0 0.0479854 0.113917 0 0.0489116 0.114178 0 
0.049839 0.114434 0 0.0507676 0.114687 0 0.0516975 0.114937 0 
0.0526285 0.115182 0 0.0535609 0.115424 0 0.0544948 0.115662 0 
0.0554301 0.115897 0 0.0563669 0.116128 0 0.057305 0.116355 0 
0.0582445 0.116579 0 0.0591854 0.116799 0 0.0601279 0.117015 0 
0.0610719 0.117228 0 0.0620174 0.117438 0 0.0629643 0.117644 0 
0.063913 0.117847 0 0.0648636 0.118046 0 0.0658164 0.118242 0 
0.0667714 0.118435 0 0.0677286 0.118624 0 0.0686879 0.11881 0 
0.0696493 0.118993 0 0.0706127 0.119172 0 0.0715777 0.119348 0 
0.072544 0.119521 0 0.0735117 0.11969 0 0.0744813 0.119856 0 
0.0754534 0.120019 0 0.0764279 0.120178 0 0.077404 0.120334 0 
0.078381 0.120486 0 0.079359 0.120636 0 0.0803383 0.120781 0 
0.081319 0.120924 0 0.0823009 0.121063 0 0.0832838 0.121199 0 
0.0842675 0.121331 0 0.0852515 0.121461 0 0.0862362 0.121586 0 
0.0872227 0.121709 0 0.0882126 0.121829 0 0.0892073 0.121946 0 
0.0902083 0.12206 0 0.00058997 0.102009 0 0.0013649 0.102173 0 
0.00214431 0.102339 0 0.0029281 0.102507 0 0.00371615 0.102679 0 
0.00450836 0.102854 0 0.0053046 0.103032 0 0.00610477 0.103214 0 
0.00690881 0.103401 0 0.00771678 0.103591 0 0.00852878 0.103785 0 
0.00934486 0.103982 0 0.010165 0.104182 0 0.0109889 0.104386 0 
0.0118166 0.104593 0 0.0126479 0.104804 0 0.0134827 0.105018 0 
0.0143209 0.105236 0 0.0151625 0.105457 0 0.0160074 0.105682 0 
0.0168556 0.105911 0 0.0177071 0.106143 0 0.0185618 0.10638 0 
0.0194195 0.106619 0 0.0202801 0.106863 0 0.0211435 0.107109 0 
0.0220095 0.10736 0 0.0228782 0.107614 0 0.0237494 0.107872 0 
0.0246232 0.108134 0 0.0254995 0.108398 0 0.0263784 0.108666 0 
0.0272598 0.108936 0 0.0281438 0.109209 0 0.0290302 0.109485 0 
0.029919 0.109762 0 0.0308101 0.110041 0 0.0317033 0.110323 0 
0.0325984 0.110605 0 0.0334954 0.110888 0 0.0343941 0.111172 0 
0.0352946 0.111456 0 0.0361969 0.111741 0 0.037101 0.112025 0 
0.0380069 0.112309 0 0.0389146 0.112593 0 0.039824 0.112875 0 
0.0407351 0.113156 0 0.0416479 0.113436 0 0.0425622 0.113713 0 
0.0434781 0.113989 0 0.0443955 0.114262 0 0.0453143 0.114533 0 
0.0462343 0.1148 0 0.0471556 0.115065 0 0.048078 0.115325 0 
0.0490016 0.115583 0 0.0499264 0.115836 0 0.0508524 0.116086 0 
0.0517796 0.116332 0 0.0527079 0.116574 0 0.0536375 0.116813 0 
0.0545685 0.117048 0 0.0555009 0.11728 0 0.0564348 0.117508 0 
[...]
POINT_DATA 10000
FIELD FieldData 6
blockage 1 10000 double
0.96348030676 0.9533062785 0.94351390703 0.9340980831 0.9250518411 0.91636620722 0.90803005357 0.9000258532 0.8922952043 
0.88471702111 0.87699211299 0.86914671278 0.86113448861 0.85301235606 0.84484713299 0.83671944688 0.82872427287 0.82095600513 
0.81349580001 0.8064355902 0.79985584543 0.79379512251 0.78818970025 0.7829365354 0.77795391559 0.7732032406 0.7686721497 
0.76435586625 0.76027000594 0.75644338367 0.75290047769 0.74964570116 0.74666327358 0.74393592902 0.74144573386 0.73917793287 
0.73711845394 0.73525716397 0.73358913189 0.73210974979 0.73081187155 0.72968600717 0.72872422636 0.72793400531 0.72733368085 
0.72694031191 0.72675047061 0.72674643897 0.72691017605 0.72722920988 0.72769424296 0.72829970877 0.72905613232 0.72998150698 
0.73108850955 0.73237075484 0.73381486711 0.73540836845 0.73714077243 0.73900256507 0.74099170335 0.74311801289 0.74539347472 
0.74782644598 0.75042182763 0.75318340264 0.75611136756 0.75920228722 0.76245289259 0.76586089019 0.76942382681 0.77314223812 
0.77702465641 0.78108346877 0.78532443775 0.78974360856 0.79433638788 0.79910705183 0.80406572025 0.8092204496 0.81457349653 
0.82012515431 0.82589687003 0.83188557154 0.83808029333 0.84450140053 0.85117415301 0.85810770342 0.8652890195 0.87269681402 
0.88031307127 0.88812162196 0.89613392224 0.90441838384 0.91308630262 0.92222522846 0.9318502404 0.9419447246 0.9524931154 
0.96348030676 0.96289013949 0.95316119382 0.94370967772 0.93453738233 0.92564454352 0.91702971405 0.90868962561 0.90061678379 
0.89277350124 0.88507535982 0.87726060021 0.86940635504 0.86149624383 0.85357930752 0.845717094 0.83796376617 0.83039055306 
0.82306096634 0.81602382354 0.80930670872 0.80293045906 0.79690162829 0.79119020622 0.78575257342 0.78056073861 0.77562250395 
0.77096676822 0.76661657525 0.76257557152 0.7588328623 0.75537599692 0.75219259234 0.7492693013 0.74659270283 0.74414504404 
0.74190790053 0.73986404635 0.73800598794 0.73633652309 0.73485860537 0.73356769518 0.73245102884 0.73149737287 0.7307139656 
0.73012172894 0.72974012961 0.72956491115 0.72957542009 0.72975086541 0.73007897594 0.73055276038 0.73116854825 0.73193603901 
0.73287086078 0.7339837705 0.7352678714 0.73670982577 0.73829834377 0.74002711988 0.74189148614 0.74389054266 0.74602917881 
0.74831337702 0.7507490408 0.75334258367 0.75609988117 0.75902218873 0.76210652793 0.76534926361 0.76874558845 0.77228924515 
0.77597926172 0.77982726493 0.78385049405 0.78805760702 0.79244493551 0.79700664868 0.80174254552 0.80665527692 0.81174801545 
0.81702797873 0.82250503164 0.8282035884 0.8341114917 0.8402084713 0.84651709235 0.85307274891 0.85989130733 0.86695631818 
0.87423937868 0.88171622123 0.88936543761 0.89719566108 0.90527817724 0.91373122681 0.92264673224 0.93203934618 0.94188965039 
0.95217923696 0.96289013949 0.96261354444 0.95320241081 0.94399093618 0.93498691043 0.92619674472 0.9176254141 0.90927633089 
0.90115032394 0.89322597825 0.88544696566 0.87758140695 0.86974359241 0.86193897954 0.85420912769 0.84660999458 0.83917391282 
0.83195236728 0.82498397334 0.81829258898 0.81185863628 0.8056595754 0.79967903703 0.79391313476 0.78836356613 0.78304276061 
0.7779919526 0.77326874633 0.76891532767 0.76492621222 0.76126174558 0.75788279233 0.75476492532 0.75189675224 0.74926787157 
0.74686120081 0.74465634241 0.74263441934 0.74078998892 0.73913107741 0.73766574741 0.73639137591 0.73529325995 0.73435815993 
0.73359281324 0.7330191557 0.73265756159 0.73250299955 0.73253296367 0.73272499901 0.73306735876 0.73355513063 0.73418632077 
0.73496980978 0.73591904055 0.7370429935 0.73833436456 0.73977993874 0.74136937448 0.74309946542 0.74496912343 0.74697842986 
0.74912895608 0.75142258102 0.75386322173 0.75645769972 0.75921271235 0.76213005377 0.76520722333 0.76844057178 0.77182388533 
0.7753486708 0.77901309728 0.7828306628 0.78682149779 0.79099600251 0.79535071678 0.79987902659 0.80457759929 0.80944384403 
0.81447745872 0.81968892629 0.8250945196 0.83072038663 0.83654841661 0.84255228454 0.8487557096 0.85520052269 0.86190693624 
0.86885629569 0.87601558305 0.88335629558 0.89085317924 0.89851245547 0.90640678158 0.91465845228 0.92336161673 0.93253003015 
0.9421419491 0.95217658469 0.96261354444 0.96260715233 0.95340373961 0.94434524178 0.93544463681 0.92671359193 0.91816252076 
0.90980046899 0.90163507933 0.89365731914 0.88583145093 0.87794883001 0.87014894036 0.86245202841 0.85489259397 0.84752081095 
0.84035134926 0.83341952699 0.82674437602 0.8203312462 0.81412825344 0.80808351288 0.80216554711 0.79638992438 0.79079132132 
0.78541099316 0.78031239966 0.77557106354 0.77124086594 0.7673096866 0.76371860176 0.76041067003 0.75735353233 0.75453732445 
0.75195393081 0.74958731614 0.74741651547 0.74542224498 0.74360059724 0.74196270293 0.74051965074 0.73927014108 0.73819865767 
0.73729105025 0.73655333963 0.736007156 0.7356725226 0.73554369709 0.73559726093 0.73581003469 0.73617106054 0.73667728458 
0.73732817866 0.73813180766 0.73909959144 0.74023886409 0.74154200832 0.74299600824 0.74459126859 0.74632675741 0.74820388234 
0.7502235612 0.75238541723 0.75468883379 0.75713614829 0.75973367517 0.76248787505 0.76540064172 0.76846995632 0.77169244525 
0.77506143793 0.77856755771 0.78220867327 0.78599909727 0.7899601584 0.79410300342 0.79842431321 0.80291708421 0.8075760226 
0.81239523253 0.81737216426 0.82251909827 0.82785597402 0.83340960968 0.83915863341 0.84507347942 0.85117813294 0.85751766427 
0.86411457728 0.87094906111 0.87798565005 0.88519336931 0.8925443594 0.90004281916 0.90776146503 0.91582409152 0.92432520218 
0.93327728777 0.94265673497 0.95244081998 0.96260715233 0.96283032035 0.95374063294 0.94476093688 0.93590866752 0.92719992819 
0.91864969778 0.91027172841 0.90207915151 0.89407193862 0.8862284533 0.87835749126 0.87061344418 0.86302531124 0.85562098568 
0.84844478504 0.84149743512 0.83480127118 0.82836041938 0.82216728841 0.81615034545 0.81024029792 0.80439718721 0.79865023405 
0.79305642049 0.78767583882 0.78258463083 0.77786711826 0.77358259419 0.76971447411 0.76619267957 0.76295005331 0.75994981148 
0.75718323979 0.75464386202 0.75231696032 0.75018213315 0.74822068924 0.7464298092 0.74482195997 0.74340952353 0.74219202232 
0.74115405535 0.74028146592 0.7395793874 0.73906806355 0.73876613724 0.73866722891 0.73874781141 0.73898478099 0.73936817758 
0.73989659127 0.74057075663 0.74139792266 0.74238763141 0.74354568843 0.74486424747 0.74633056032 0.74793561191 0.74967976936 
0.75156602541 0.753596006 0.75576851985 0.75808178923 0.76053692106 0.76313898805 0.76589335777 0.768801662 0.77186235145 
0.77507255862 0.77842595539 0.78191342812 0.78553301753 0.78929895334 0.7932323252 0.79734418081 0.80163128563 0.80608658251 
0.81070381975 0.81547545575 0.82039774617 0.82548351885 0.8307540418 0.83623590108 0.84190673924 0.8477361453 0.85374763125 
0.85998678866 0.86647665966 0.87319716968 0.88011225382 0.88718998466 0.89440099194 0.90174781923 0.90930211108 0.91718693316 
0.92549553233 0.93423886613 0.94339188494 0.95293036015 0.96283032035 0.96324491672 0.95419005542 0.94522708241 0.93637723031 
0.92766031039 0.91909509487 0.91069922571 0.9024901683 0.89447399659 0.88663763255 0.87880231931 0.871128653 0.86364931072 
0.85638606428 0.84937741776 0.84261344219 0.83610630785 0.82984931434 0.8238266559 0.81795773464 0.81216581256 0.80640795825 
0.80072206044 0.7951782999 0.7898471315 0.78480940563 0.78015069845 0.7759305316 0.77212972366 0.76867385828 0.76549193561 
0.76254568202 0.75982720087 0.757331091 0.75504412128 0.75294732402 0.75102336736 0.74927013721 0.7477000054 0.74632524603 
0.74514578944 0.74414709146 0.74331571162 0.74265576743 0.74218526182 0.74192064578 0.74185498578 0.74196532141 0.74222929244 
0.74263809237 0.74319174676 0.74389205761 0.74474545456 0.74575973085 0.7469392695 0.74827607039 0.74975771402 0.75137563354 
0.75313096212 0.75502753212 0.75706756508 0.75924996382 0.76157286349 0.76403643464 0.76664394538 0.76939900671 0.77230270077 
0.77535392023 0.77855047749 0.7818870426 0.78535571479 0.7889550973 0.79269859098 0.79660585333 0.80068713073 0.8049392271 
0.80935531261 0.81392902141 0.81865256004 0.82352187638 0.82854930334 0.83375548513 0.83916602613 0.84475946323 0.8505065341 
0.85642967815 0.86257274983 0.86895786697 0.87556543445 0.88236033038 0.88931096029 0.89638739855 0.90359087903 0.91099101764 
0.91870823707 0.92683316606 0.93537505279 0.94430782466 0.95360616228 0.96324491672 0.96381512559 0.95473036534 0.94573339982 
0.93684866153 0.92809902623 0.91950638075 0.91109154192 0.90287531243 0.89486741193 0.88705866799 0.87927853233 0.87168659481 
0.86431504581 0.85718005346 0.85031446134 0.84370056705 0.83734285161 0.83122730308 0.82533383217 0.81958140331 0.81389393155 
0.80822996527 0.80263184693 0.79717532615 0.79193417408 0.78698745883 0.78241595468 0.77827526963 0.77454520634 0.77115260213 
0.76802783781 0.76513354378 0.7624623521 0.76000945043 0.75776316807 0.75570659472 0.75382430408 0.75211456521 0.75058854246 
0.74925731534 0.74812089075 0.74716614535 0.74638090524 0.74576818361 0.7453431032 0.7451193187 0.74508943511 0.74523161187 
0.74552477456 0.74596137569 0.74654267345 0.74727134915 0.7481530064 0.74919380317 0.75039679472 0.75175389347 0.75325306244 
0.7548860836 0.75665435856 0.75856197141 0.760611642 0.76280306156 0.76513510374 0.76760724413 0.77022054716 0.77297638772 
0.77587508135 0.7789159205 0.78209751722 0.78541605821 0.7888656178 0.79244567388 0.79616819745 0.8000504538 0.80410132278 
0.80831761057 0.81269294321 0.81722153169 0.82189647098 0.82671412905 0.83168550042 0.83682902183 0.84216871139 0.84768550503 
0.85335289667 0.85919178543 0.86524247181 0.87152496692 0.87802075521 0.88469690584 0.89152321793 0.89847003308 0.90553759937 
0.91279271451 0.92035154821 0.92830098814 0.93664848389 0.94536733443 0.95443152757 0.96381512559 0.96450727002 0.95534120767 
0.94627021872 0.93732139457 0.92852011006 0.91989077384 0.91145675647 0.90324134836 0.89525587572 0.88749125611 0.87978162182 
0.8722797523 0.86501404661 0.85799561918 0.85125191094 0.84475994163 0.83851865792 0.83250971947 0.82671193332 0.82105060807 
0.81545664981 0.80989353988 0.8044045849 0.79906486628 0.79394577335 0.78911950176 0.78465737546 0.78060793266 0.7769512721 
0.77361991854 0.7705497692 0.76770624017 0.7650822445 0.76267314611 0.76046881807 0.75845479673 0.75661789785 0.75495650856 
0.75347977565 0.75219679566 0.75110739912 0.75020027913 0.74946491484 0.74890316454 0.74852683563 0.74834637907 0.74835403994 
0.74852953469 0.74885349751 0.74931969768 0.74993042848 0.75068906929 0.75160038769 0.75266900532 0.7538967337 0.75527545592 
0.75679356455 0.75844312188 0.76022542956 0.76214438575 0.764203126 0.76640262002 0.76874306866 0.77122344359 0.77384236265 
0.77659866062 0.77949173718 0.78252122857 0.78568661448 0.78898598565 0.79241597437 0.79597717055 0.79967965288 0.80353755713 
0.80755796238 0.81173765037 0.81607088173 0.82055298923 0.82517885371 0.82994583922 0.83486294862 0.83994518025 0.84521449886 
0.850655388 0.85624533401 0.8620033517 0.86796479505 0.87414665648 0.88053196299 0.88709094016 0.89379562493 0.90061732183 
0.90755559579 0.91467379733 0.92208252727 0.92986403699 0.93802396978 0.94653537305 0.95537192395 0.96450727002 0.96528965123 
0.956003417 0.94682842956 0.93779394975 0.92892735787 0.92025507091 0.91180247892 0.90359464769 0.89564286385 0.88793510869 
0.88030733713 0.87290103953 0.86573832959 0.85882584967 0.85218599568 0.84579264201 0.83964105408 0.83371104504 0.8279827913 
0.8223929864 0.81688420098 0.81142735413 0.80606390776 0.80086335285 0.7958902724 0.79120622358 0.78686976428 0.78292014165 
0.77933880974 0.77606731972 0.77305019171 0.7702570246 0.76768080362 0.76531672648 0.76315610747 0.76118709656 0.75939888871 
0.75778977792 0.75636636999 0.75513527313 0.7540959631 0.75323918493 0.75255630148 0.75204800143 0.75172253581 0.75158693189 
0.75163318535 0.75184289657 0.75219871758 0.75269574687 0.75333712038 0.75412674074 0.75506852629 0.75616564715 0.75741874504 
0.758819724 0.76035744657 0.76202421638 0.76382098998 0.76575118533 0.76781828515 0.77002483303 0.77237271957 0.77486055529 
0.77748441755 0.78024046467 0.78312709609 0.78614422259 0.78929221014 0.79257131541 0.79598114009 0.79952355216 0.80320640788 
0.80704018914 0.81102986526 0.81517217609 0.81946214797 0.82389664059 0.82847298566 0.83318997401 0.83805414563 0.84307616717 
0.84827561307 0.85364132554 0.85915566178 0.86483552447 0.87071033653 0.87679342075 0.8830696784 0.88951318474 0.89609885062 
0.90279951804 0.9096143503 0.9166027763 0.92386879631 0.93148934769 0.93946833606 0.94777891746 0.95639482489 0.96528965123 
0.96613240239 0.95669892943 0.94739944089 0.93826492552 0.9293243414 0.9206056738 0.9121358786 0.90394121301 0.89603164927 
0.88838995124 0.88085167088 0.87354377923 0.8664803733 0.85966423534 0.85311316891 0.84679969563 0.84071696761 0.8348449612 
0.82916703186 0.82363465616 0.81820516792 0.81285852621 0.80763217813 0.80258634419 0.7977755804 0.7932482923 0.78904821838 
0.78520398048 0.78169920997 0.77848678722 0.77552198716 0.77277952972 0.77025230051 0.76793505493 0.76582036465 0.76389894885 
0.76216232943 0.76060854671 0.7592414141 0.75806481502 0.75707776249 0.75627313685 0.75564426712 0.75519069149 0.75491704823 
0.75482689965 0.75491211121 0.75515638951 0.75554460555 0.7560731564 0.75674583304 0.75756689269 0.75853938792 0.75966510876 
0.76094359132 0.76236680342 0.76392411182 0.76560805062 0.76741910366 0.76936005141 0.77143466883 0.77364718302 0.77600132094 
0.7784954285 0.7811230909 0.78387781392 0.78675697448 0.78976067612 0.79289014232 0.79614793765 0.7995368807 0.80306021526 
0.80672337173 0.81053285742 0.81449134283 0.81859551728 0.82284125867 0.82722722475 0.83175364042 0.83642101511 0.84123312907 
0.84619574709 0.85132583982 0.856617099 0.86205728661 0.86766107427 0.87345136196 0.8794374042 0.88560618225 0.89193605253 
0.89840523536 0.90498856898 0.91168507605 0.91854993792 0.92567979764 0.9331458085 0.9409502785 0.94906681662 0.95746956278 
0.96613240239 0.96700735537 0.95741070238 0.94797514067 0.93873299076 0.92971442156 0.92094861438 0.91246371241 0.9042867005 
0.8964253136 0.88885552157 0.88141084489 0.87420168076 0.86723309432 0.86050464869 0.85403009812 0.84778208697 0.84175295212 
0.83592439781 0.8302841474 0.82480030873 0.81944658564 0.81421271875 0.80913056875 0.80424858005 0.79960920009 0.79524635546 
0.79118810875 0.7874519647 0.78402433115 0.78087073922 0.77795842699 0.77526773918 0.77279132509 0.77052328471 0.768457186 
0.76658607216 0.76490355936 0.76340732159 0.76209838686 0.76097793254 0.76004446794 0.75929294727 0.75871860709 0.75831988622 
0.75809792957 0.75805296338 0.75817685083 0.7584555274 0.75887618124 0.75943643654 0.76014055625 0.76099298932 0.76199590261 
0.76314976477 0.76445306118 0.76589785932 0.76747405829 0.76917443872 0.77099899639 0.77294984781 0.77503101841 0.77724835104 
0.77960734935 0.78210614689 0.7847360208 0.78748800145 0.79035848055 0.79334766059 0.79645754854 0.79969304392 0.80306027286 
0.80656388753 0.81020681013 0.8139914476 0.81791809735 0.8219833981 0.82618412197 0.83052086743 0.83499698156 0.83961485129 
0.84437536733 0.84927913191 0.85434041522 0.85955794608 0.86492509312 0.8704542796 0.87616166897 0.88205229281 0.88811529724 
0.89433349918 0.90068867069 0.90715799452 0.91374059351 0.92048721854 0.92748666478 0.93480402963 0.94244023035 0.950369658 
0.95856719529 0.96700735537 0.96788791919 0.95812264165 0.94854786114 0.93919687812 0.93010076102 0.92128957804 0.91279235091 
0.9046364413 0.8968267584 0.88933156863 0.88198129677 0.87486881857 0.86798982356 0.8613413241 0.85493365424 0.84874076207 
0.84275521097 0.83696157867 0.83135256556 0.8259132963 0.82063403755 0.81551423025 0.81057913746 0.80586403312 0.80139825291 
0.79720104047 0.7932850615 0.7896570123 0.78630646738 0.78321200014 0.78035314443 0.77771596176 0.77529276188 0.77307683607 
0.77106241412 0.76924442699 0.76761818086 0.76618091586 0.76493112693 0.76386754702 0.76298820402 0.76228992687 0.76176966654 
0.76142484405 0.76125339759 0.76125250871 0.76141417468 0.76172658785 0.76217925361 0.76277091293 0.76350612209 0.76438936424 
0.76542189732 0.766602915 0.76792989809 0.76939504279 0.77098880301 0.7727042476 0.77454097612 0.7765005398 0.77858718534 
0.78080813429 0.78317041007 0.78567194356 0.78830201786 0.7910495115 0.79390992546 0.79688345591 0.79997277593 0.803185037 
0.80652961335 0.8100125356 0.81363425139 0.81739312809 0.82128712573 0.8253128407 0.82946794062 0.8337549843 0.83818046527 
0.84274867991 0.8474576596 0.85230287975 0.85729592392 0.86244045845 0.86773534019 0.87319082138 0.87881647995 0.88461320602 
0.89057227947 0.89668091401 0.90292448946 0.90928277571 0.91575521692 0.92238808842 0.92926210403 0.93643622279 0.94391024066 
0.9516596454 0.95966038335 0.96788791919 0.96874896907 0.95881953482 0.94911034706 0.93965537824 0.9304863363 0.92163392563 
0.91312780288 0.90499546173 0.89723871588 0.88981785155 0.88255966706 0.87553961116 0.86874428284 0.86216883766 0.85582090056 
0.84967663177 0.84372961896 0.83796806426 0.83238971379 0.82699571392 0.82179174533 0.81678608017 0.81199689681 0.80744595659 
0.80314950205 0.79911295458 0.79533494005 0.79181241638 0.78853831879 0.7855037724 0.7827001086 0.78011880744 0.77775176767 
0.77559137534 0.7736321179 0.77187019599 0.77030203789 0.76892442509 0.76773380514 0.76672695895 0.7659015155 0.76525584797 
0.76478830059 0.76449538688 0.76437228441 0.76441357633 0.76461153884 0.76495655889 0.76544036579 0.76606266998 0.76682814654 
0.76774116046 0.76880203405 0.77000872085 0.77135773473 0.77284142342 0.77445081259 0.77617932541 0.77802635963 0.77999311946 
0.78208405591 0.78430737032 0.78667116031 0.78917312307 0.7918009857 0.79454193875 0.79739074173 0.80034746835 0.80341529874 
0.80660344807 0.80992433552 0.81338528038 0.81698440034 0.82071626266 0.82457663122 0.82856207633 0.83267112309 0.83690819194 
0.841282751 0.84580091644 0.85045804397 0.85524480198 0.86017020574 0.86524248778 0.87046556591 0.87584768608 0.88139234364 
0.88709659751 0.89295371881 0.89895502002 0.90508936496 0.91133925252 0.91770465008 0.9242274451 0.93098028563 0.93801609051 
0.94533386253 0.95291048693 0.96072327942 0.96874896907 0.96956674479 0.95948699042 0.94965572682 0.94010733478 0.93087394918 
0.92198671417 0.91347573838 0.90536850247 0.8976637593 0.89031413874 0.88314278673 0.87620880056 0.86949056166 0.86298208692 
0.85668908127 0.85059057402 0.84468174229 0.83895479184 0.83341208023 0.82806847669 0.82294265315 0.81805008822 0.81340187859 
0.80900692802 0.80486937334 0.8009826844 0.79733382837 0.79391181945 0.79071296354 0.78773960994 0.78499360047 0.78247116531 
0.78016375103 0.77806279586 0.77616257444 0.77445976582 0.7729511966 0.77163320512 0.77050089919 0.76954981975 0.76877733635 
0.76818291093 0.76776583763 0.76752186009 0.76744399334 0.76752481641 0.76775703748 0.76813308999 0.76864674459 0.7692984988 
0.77009297584 0.77103427506 0.772121753 0.77335214667 0.77472103274 0.77622092726 0.77784343924 0.77958243572 0.781437405 
0.78340953703 0.78550348195 0.78772786724 0.79009123866 0.79259098952 0.79521384774 0.79794591398 0.80078140814 0.80372015482 
0.80676564237 0.80992886048 0.81322493244 0.81666231908 0.82023705894 0.82394032986 0.82776594203 0.83171046369 0.83577320176 
0.83996022606 0.84428361916 0.84875111116 0.8533557129 0.85808387762 0.86294226951 0.86794305916 0.87309449992 0.87840307657 
0.88386704458 0.88948016384 0.89523744718 0.90113378174 0.90716121814 0.91330502975 0.91956589038 0.92598151539 0.93261674359 
0.93951872426 0.94668605031 0.95409729206 0.96173142528 0.96956674479 0.97031875768 0.96011138233 0.95017748612 0.94055164021 
0.93126623761 0.92235271628 0.91384151051 0.90576003675 0.89810431289 0.89082020718 0.88372766521 0.8768714321 0.87022309431 
0.86377627059 0.85753560965 0.85148343511 0.8456168569 0.83993211336 0.83443527146 0.82915139265 0.82410850664 0.8193269483 